# vtk DataFile Version 4.0
vtk output
ASCII
DATASET UNSTRUCTURED_GRID
POINTS 2 float
1.2000000e+00 0.0000000e+00 0.0000000e+00 
0.0000000e+00 0.0000000e+00 0.0000000e+00 

CELLS 1 3
2 1 0

CELL_TYPES 1
3
POINT_DATA 2
FIELD FieldData 4
DISPLACEMENT 3 2  float
1.0226219e-07 0.0000000e+00 2.7839541e-04 
0.0000000e+00 0.0000000e+00 0.0000000e+00 
REACTION 3 2  float
6.0974569e-09 -0.0000000e+00 -2.6529294e-05 
-6.0974569e-09 -0.0000000e+00 -9.9999973e+01 
ROTATION 3 2  float
0.0000000e+00 -3.4799422e-04 0.0000000e+00 
0.0000000e+00 0.0000000e+00 0.0000000e+00 
REACTION_MOMENT 3 2  float
-0.0000000e+00 -2.1223438e-05 -0.0000000e+00 
-0.0000000e+00 1.2000000e+02 -0.0000000e+00 
CELL_DATA 1
FIELD FieldData 0
